################################################################################
# Symmetry function scaling data.
################################################################################
# Col  Name     Description
################################################################################
# 1    e_index  Element index.
# 2    sf_index Symmetry function index.
# 3    sf_min   Symmetry function minimum.
# 4    sf_max   Symmetry function maximum.
# 5    sf_mean  Symmetry function mean.
# 6    sf_sigma Symmetry function sigma.
#########################################################################################################################
#        1          2                        3                        4                        5                        6
#  e_index   sf_index                   sf_min                   sf_max                  sf_mean                 sf_sigma
#########################################################################################################################
         1          1   1.2041702528713067E-05   5.2805793380037169E-01   1.1419811096146577E-01   6.2678944308173432E-02
         1          2   4.2000812024680784E-01   8.4423282046999470E-01   5.4378807180583610E-01   3.2355170639708074E-02
         1          3   3.5587938509549742E-02   2.1619018212037602E-01   1.0786293232671607E-01   1.2602190489505448E-02
         1          4   0.0000000000000000E+00   1.4852369625889808E-01   4.3282485465309488E-02   2.8122583261656998E-02
         1          5   5.3831554943516348E-06   4.7658955493901217E-01   7.9402958059611298E-02   4.5109909392433610E-02
         1          6   3.4819500699686895E-01   7.4553624234847671E-01   4.4943745171884875E-01   2.6045782465824903E-02
         1          7   0.0000000000000000E+00   1.0609346046725598E-01   2.8244265112251712E-02   1.8534597574087212E-02
         1          8   1.1445812803019006E-06   4.0424355267564299E-01   4.0335057570850104E-02   2.4784868666772941E-02
         1          9   2.6707512869026506E-01   6.0938063686167787E-01   3.3669403536269160E-01   1.8343307808267810E-02
         1         10   1.3101886831703568E-07   3.3367214127331374E-01   1.6312020844894675E-02   1.1506137278675584E-02
         1         11   2.0850436924700164E-01   4.8317918299737184E-01   2.5438647634629780E-01   1.2262014670301637E-02
         1         12   2.7251996508873233E-01   1.0785572586425636E+00   7.0214121803082119E-01   1.8448991642929688E-01
         1         13   1.7408195258037160E+00   2.3566702263066190E+00   2.0181231022382891E+00   9.0757029794850452E-02
         1         14   3.6874307430098213E-01   6.9370849369891763E-01   4.6398368750401503E-01   4.5298438009862024E-02
         1         15   1.7124700343534988E-01   6.4895866393373136E-01   3.5696630078476843E-01   1.2001463424148245E-01
         1         16   1.4253988754777219E-01   8.8847597886231944E-01   4.9054819643698216E-01   1.5600197680272160E-01
         1         17   1.2775009295528588E+00   1.7918457941888124E+00   1.5016929718169265E+00   7.1027124180987292E-02
         1         18   2.6230926601024607E-01   5.4023493985399129E-01   3.4121984163055158E-01   3.6128503913607585E-02
         1         19   9.0418788247837514E-02   4.8633251870770305E-01   2.4223249589426260E-01   9.6966699442742679E-02
         1         20   3.4772026127307364E-02   6.5873004736835139E-01   2.4009742172958479E-01   9.8609114421739155E-02
         1         21   7.2954227284680306E-01   1.1727958760352661E+00   8.7684305623055814E-01   4.3330630946059191E-02
         1         22   1.1714532685272101E-01   3.2747545226844355E-01   1.8643050394534352E-01   2.1250461762872781E-02
         1         23   2.1496549176768860E-02   2.6502171648007861E-01   1.0956402632653753E-01   5.4789695907709386E-02
         1         24   4.6070901201158707E-03   4.9332909275916736E-01   9.3115672977824956E-02   4.6800228069079304E-02
         1         25   3.9954488361635504E-01   7.9271185592084836E-01   4.9441473731674729E-01   2.4569003138902153E-02
         1         26   2.6466714854221267E-03   1.1530019119787462E-01   3.6966688623881687E-02   2.1455964632823517E-02
         1         27   3.4753115804636684E-04   3.8233633926668115E-01   2.9875400728020373E-02   1.8061071680663777E-02
         1         28   2.5420091927905741E-01   5.6825239462558030E-01   3.1026138638293937E-01   1.4644041426830654E-02
         1         29   1.4139005379309486E-01   3.1913555156904716E-01   1.7823690481957419E-01   7.6305607609337394E-03
         1         30   4.8061000200247707E-03   1.9023157254963061E-01   4.3290748913530394E-02   1.8658395912442238E-02
         1         31   4.8061000200247707E-03   1.9023157254963061E-01   4.3290748913530394E-02   1.8658395912442238E-02
         1         32   3.0752306951295633E-02   3.3373333176081349E-01   1.2743045772722522E-01   4.3680168409757560E-02
         1         33   3.0752306951295633E-02   3.3373333176081349E-01   1.2743045772722522E-01   4.3680168409757560E-02
         1         34   1.0576185035840305E-01   2.1560688216571502E-01   1.4409939453483012E-01   1.6354797218093541E-02
         1         35   1.6089064548911004E-02   1.5792964319543665E-01   6.7527959274181579E-02   3.3546741086349550E-02
         1         36   1.6089064548911004E-02   1.5792964319543665E-01   6.7527959274181579E-02   3.3546741086349550E-02
         1         37   2.7137158875557288E-02   2.5770195737106788E-01   1.0328210890243644E-01   3.4087658989750247E-02
         1         38   2.7137158875557288E-02   2.5770195737106788E-01   1.0328210890243644E-01   3.4087658989750247E-02
         1         39   1.4255749349080691E-02   1.2989914671164057E-01   5.8300355540793054E-02   2.7427960059567255E-02
         1         40   1.4255749349080691E-02   1.2989914671164057E-01   5.8300355540793054E-02   2.7427960059567255E-02
         1         41   5.7735583490148448E-06   4.5203815026854949E-01   6.6359268182981851E-02   3.7921316827996550E-02
         1         42   5.7735583490148448E-06   4.5203815026854949E-01   6.6359268182981851E-02   3.7921316827996550E-02
         1         43   4.3821965300970364E-02   3.5491769574124737E-01   1.2326088203961634E-01   2.1476611114720982E-02
         1         44   0.0000000000000000E+00   9.7482117424149875E-02   2.9045014586798659E-02   1.7915271315182137E-02
         1         45   0.0000000000000000E+00   9.7482117424149875E-02   2.9045014586798659E-02   1.7915271315182137E-02
         1         46   7.7155248853003338E-06   4.3956952737914168E-01   5.6777674207551150E-02   3.1175587478728416E-02
         1         47   7.7155248853003338E-06   4.3956952737914168E-01   5.6777674207551150E-02   3.1175587478728416E-02
         1         48   4.7073981394007140E-02   2.0701348493138053E-01   8.8828728514325897E-02   1.4493176889191257E-02
         1         49   0.0000000000000000E+00   8.8420861359788466E-02   1.8872701439474508E-02   1.4289870414667505E-02
         1         50   0.0000000000000000E+00   8.8420861359788466E-02   1.8872701439474508E-02   1.4289870414667505E-02
         1         51   4.1273019488990892E-06   3.1534409197656771E-01   4.2860489500471888E-02   2.6105154716637564E-02
         1         52   4.1273019488990892E-06   3.1534409197656771E-01   4.2860489500471888E-02   2.6105154716637564E-02
         1         53   2.5310474958364287E-02   2.5310662958406471E-01   8.8513149476471223E-02   1.6790671773040052E-02
         1         54   6.0692684851845782E-06   3.0287546908715979E-01   3.3278895525041208E-02   1.8362793468889530E-02
         1         55   6.0692684851845782E-06   3.0287546908715979E-01   3.3278895525041208E-02   1.8362793468889530E-02
         1         56   2.9294880445223279E-07   2.4655398010937010E-01   1.5851084954296029E-02   1.0617680463778905E-02
         1         57   2.9294880445223279E-07   2.4655398010937010E-01   1.5851084954296029E-02   1.0617680463778905E-02
         1         58   2.2704684281366267E-07   1.7521311300153095E-01   1.0565157405238636E-02   7.9578302495823313E-03
         1         59   2.2704684281366267E-07   1.7521311300153095E-01   1.0565157405238636E-02   7.9578302495823313E-03
         1         60   3.2164368959147337E-02   5.6454247897875542E-01   2.5810096667508320E-01   1.1190266746520643E-01
         1         61   5.6365161379869555E-01   2.4702401755489101E+00   1.4056322814273816E+00   3.4622345433734592E-01
         1         62   5.6365161379869555E-01   2.4702401755489101E+00   1.4056322814273816E+00   3.4622345433734592E-01
         1         63   1.0752207795955894E-01   7.5758034158283938E-01   3.1821536544682533E-01   9.2928362658090666E-02
         1         64   1.0752207795955894E-01   7.5758034158283938E-01   3.1821536544682533E-01   9.2928362658090666E-02
         1         65   1.2853608822559603E-01   4.4274582748498092E-01   2.3723022966195048E-01   3.1795475466666161E-02
         1         66   1.2853608822559603E-01   4.4274582748498092E-01   2.3723022966195048E-01   3.1795475466666161E-02
         1         67   1.4295963113210137E+00   2.7505097019909148E+00   1.9958739023707652E+00   1.8843264915299979E-01
         1         68   5.9784953941257346E-01   1.5662621226431668E+00   8.6289827356081161E-01   1.3251575830001966E-01
         1         69   5.9784953941257346E-01   1.5662621226431668E+00   8.6289827356081161E-01   1.3251575830001966E-01
         1         70   3.3106839594963550E-01   1.4624879992229349E+00   7.7250321424909629E-01   2.8058175832051180E-01
         1         71   3.3106839594963550E-01   1.4624879992229349E+00   7.7250321424909629E-01   2.8058175832051180E-01
         1         72   3.4177018809789746E-02   2.2568809477417590E-01   7.1384017014552104E-02   2.5535089273496476E-02
         1         73   9.7926873782901630E-02   3.8075051837002394E-01   2.1322194225562488E-01   6.2506038369171568E-02
         1         74   9.7926873782901630E-02   3.8075051837002394E-01   2.1322194225562488E-01   6.2506038369171568E-02
         1         75   1.1794292280415843E-02   2.0144655878468989E-01   5.4432822658708219E-02   5.0249034009461083E-02
         1         76   3.0244398386330727E-02   4.4788012334753141E-01   2.0342297735847994E-01   8.2334529780883958E-02
         1         77   5.8364875373833591E-01   2.4332657511794027E+00   1.4029740722024437E+00   3.3876914644581896E-01
         1         78   5.8364875373833591E-01   2.4332657511794027E+00   1.4029740722024437E+00   3.3876914644581896E-01
         1         79   1.1457369515258409E-01   6.5658135039974075E-01   3.2999555758938565E-01   8.3751827673579735E-02
         1         80   1.1457369515258409E-01   6.5658135039974075E-01   3.2999555758938565E-01   8.3751827673579735E-02
         1         81   9.9601770418666108E-02   3.2712556828257017E-01   2.2197995290596609E-01   2.7890898699428460E-02
         1         82   9.9601770418666108E-02   3.2712556828257017E-01   2.2197995290596609E-01   2.7890898699428460E-02
         1         83   1.3739001605967969E+00   2.4767525661052772E+00   1.8196243727094057E+00   1.7314602006294061E-01
         1         84   7.4714307961450199E-01   1.5927094160220765E+00   1.0141394873512235E+00   1.1424842807146765E-01
         1         85   7.4714307961450199E-01   1.5927094160220765E+00   1.0141394873512235E+00   1.1424842807146765E-01
         1         86   2.9027603763886028E-01   1.3798386281818251E+00   6.8581078016796237E-01   2.7579947340446853E-01
         1         87   2.9027603763886028E-01   1.3798386281818251E+00   6.8581078016796237E-01   2.7579947340446853E-01
         1         88   5.0592595370735668E-02   2.4452634559547617E-01   1.1867069116396112E-01   5.8687734464640873E-02
         1         89   5.0592595370735668E-02   2.4452634559547617E-01   1.1867069116396112E-01   5.8687734464640873E-02
         1         90   1.0777189182972316E-02   1.5160000185425915E-01   5.8460885223834087E-02   3.7363683088437703E-02
         1         91   2.0701326439008492E-02   4.2335644542670597E-01   1.8174229566420394E-01   7.8082580241649643E-02
         1         92   3.6377338010484744E-01   1.6792574208784266E+00   9.1600806645751887E-01   2.2640995737455064E-01
         1         93   3.6377338010484744E-01   1.6792574208784266E+00   9.1600806645751887E-01   2.2640995737455064E-01
         1         94   5.9229532260866483E-02   5.2610098704108377E-01   2.0594538954684641E-01   6.5836482910527822E-02
         1         95   5.9229532260866483E-02   5.2610098704108377E-01   2.0594538954684641E-01   6.5836482910527822E-02
         1         96   7.5383552980636467E-02   3.0843357936032739E-01   1.4873835854496892E-01   2.5290224919920574E-02
         1         97   7.5383552980636467E-02   3.0843357936032739E-01   1.4873835854496892E-01   2.5290224919920574E-02
         1         98   9.5118632795515634E-01   1.8387432150020682E+00   1.3432155916062374E+00   1.2271750438231202E-01
         1         99   3.8193021320890702E-01   1.0703463025828845E+00   5.6386461725704229E-01   9.1305810967043169E-02
         1        100   3.8193021320890702E-01   1.0703463025828845E+00   5.6386461725704229E-01   9.1305810967043169E-02
         1        101   2.2226899480102752E-01   9.8674280045448048E-01   5.4200245657077850E-01   1.8519159628580689E-01
         1        102   2.2226899480102752E-01   9.8674280045448048E-01   5.4200245657077850E-01   1.8519159628580689E-01
         1        103   1.4138679734633716E-02   1.6448342248503001E-01   3.8516760164320298E-02   1.8792462901014346E-02
         1        104   6.2177443979470746E-02   2.8278348272873177E-01   1.5926681691286246E-01   4.3307466091522522E-02
         1        105   6.2177443979470746E-02   2.8278348272873177E-01   1.5926681691286246E-01   4.3307466091522522E-02
         1        106   7.6598820226067765E-03   1.4528174120047962E-01   3.5083664842873737E-02   3.4929726286414678E-02
         1        107   2.1021649329761954E-02   2.8481031987793376E-01   1.2706430634760069E-01   4.8501667152261257E-02
         1        108   3.8945346597093955E-01   1.6422829965089198E+00   9.1334985723258066E-01   2.1750163553317733E-01
         1        109   3.8945346597093955E-01   1.6422829965089198E+00   9.1334985723258066E-01   2.1750163553317733E-01
         1        110   7.6832083318383454E-02   4.3468280616594895E-01   2.1772558168940681E-01   5.4449405733509620E-02
         1        111   7.6832083318383454E-02   4.3468280616594895E-01   2.1772558168940681E-01   5.4449405733509620E-02
         1        112   4.8497488320989615E-02   2.1233682169970042E-01   1.3348808178898447E-01   1.9325398690090739E-02
         1        113   4.8497488320989615E-02   2.1233682169970042E-01   1.3348808178898447E-01   1.9325398690090739E-02
         1        114   8.9287339801471621E-01   1.5649860791164361E+00   1.1669660619448783E+00   1.0643380697620460E-01
         1        115   5.3059321320389352E-01   1.0810628170500776E+00   7.1510583104745451E-01   7.2535611388596266E-02
         1        116   5.3059321320389352E-01   1.0810628170500776E+00   7.1510583104745451E-01   7.2535611388596266E-02
         1        117   1.8651935991803123E-01   9.0720598666888197E-01   4.5531002248964408E-01   1.7979495770056161E-01
         1        118   1.8651935991803123E-01   9.0720598666888197E-01   4.5531002248964408E-01   1.7979495770056161E-01
         1        119   2.3394672967513200E-02   1.4642712150475692E-01   6.4715565821198653E-02   3.8283091372362257E-02
         1        120   2.3394672967513200E-02   1.4642712150475692E-01   6.4715565821198653E-02   3.8283091372362257E-02
         1        121   7.7070877539450701E-03   9.3805838454734267E-02   3.9111727407999626E-02   2.1759527343280419E-02
         1        122   5.7403927943161775E-04   2.0179857956429562E-01   3.1610892806791795E-02   1.8134060770814614E-02
         1        123   2.9468211792182539E-02   7.8178473533468351E-01   2.1281939415993217E-01   8.8013464603913225E-02
         1        124   2.9468211792182539E-02   7.8178473533468351E-01   2.1281939415993217E-01   8.8013464603913225E-02
         1        125   5.1766680763781960E-03   2.3152198857497205E-01   4.5348638738642262E-02   2.1096386069766826E-02
         1        126   5.1766680763781960E-03   2.3152198857497205E-01   4.5348638738642262E-02   2.1096386069766826E-02
         1        127   2.0753336863558300E-01   6.8464123670064170E-01   3.5251275590017211E-01   4.1683571336943372E-02
         1        128   7.4983508175145444E-02   3.9592029958892366E-01   1.3276728201043275E-01   2.7256738588773720E-02
         1        129   7.4983508175145444E-02   3.9592029958892366E-01   1.3276728201043275E-01   2.7256738588773720E-02
         1        130   1.8232136866632293E-02   2.7063336648104391E-01   1.1064441053780276E-01   5.4724051395041273E-02
         1        131   1.8232136866632293E-02   2.7063336648104391E-01   1.1064441053780276E-01   5.4724051395041273E-02
         1        132   3.3189078354790846E-02   7.6332703061355256E-01   2.0340808987426431E-01   8.0776416683080041E-02
         1        133   3.3189078354790846E-02   7.6332703061355256E-01   2.0340808987426431E-01   8.0776416683080041E-02
         1        134   2.1393075551962432E-01   4.9615540869579755E-01   3.0018753307320445E-01   3.4239199011849027E-02
         1        135   1.3030482234403071E-01   3.6710436667781110E-01   1.9514619615898332E-01   2.3683270323023548E-02
         1        136   1.3030482234403071E-01   3.6710436667781110E-01   1.9514619615898332E-01   2.3683270323023548E-02
         1        137   1.5691062882714626E-02   2.4579657635541169E-01   8.4592382198375837E-02   5.0321956771692815E-02
         1        138   1.5691062882714626E-02   2.4579657635541169E-01   8.4592382198375837E-02   5.0321956771692815E-02
         1        139   1.9371597489830399E-02   5.3974274534160604E-01   1.3703531102782793E-01   5.8059568844715179E-02
         1        140   1.9371597489830399E-02   5.3974274534160604E-01   1.3703531102782793E-01   5.8059568844715179E-02
         1        141   2.7417817159926822E-03   1.6922728967758252E-01   2.9295022006868073E-02   1.4925785980353925E-02
         1        142   2.7417817159926822E-03   1.6922728967758252E-01   2.9295022006868073E-02   1.4925785980353925E-02
         1        143   1.3119248841336592E-01   4.7475901679300198E-01   2.4273715322347361E-01   2.9065862716070440E-02
         1        144   4.5535104489379620E-02   2.8295952494350796E-01   8.4998812450164246E-02   1.8315887096462407E-02
         1        145   4.5535104489379620E-02   2.8295952494350796E-01   8.4998812450164246E-02   1.8315887096462407E-02
         1        146   1.2091792892310892E-02   1.8167075598750976E-01   8.1279999753672533E-02   3.6419488283017568E-02
         1        147   1.2091792892310892E-02   1.8167075598750976E-01   8.1279999753672533E-02   3.6419488283017568E-02
         1        148   2.3092464052438665E-02   5.2128504062047598E-01   1.2762400674216001E-01   4.9630296241076531E-02
         1        149   2.3092464052438665E-02   5.2128504062047598E-01   1.2762400674216001E-01   4.9630296241076531E-02
         1        150   1.3934908781399699E-01   2.8671926620821631E-01   1.9041193039650597E-01   1.9691469287194941E-02
         1        151   9.5096356864431769E-02   2.5414359203239512E-01   1.4737772659871476E-01   1.4621490230927067E-02
         1        152   9.5096356864431769E-02   2.5414359203239512E-01   1.4737772659871476E-01   1.4621490230927067E-02
         1        153   9.5507189083932058E-03   1.5683396586187773E-01   5.5227971414245611E-02   3.1583529996992890E-02
         1        154   9.5507189083932058E-03   1.5683396586187773E-01   5.5227971414245611E-02   3.1583529996992890E-02
         1        155   7.3799513210871969E-05   2.1442235599066109E-01   1.0866714639469905E-02   7.2904453872679187E-03
         1        156   7.3799513210871969E-05   2.1442235599066109E-01   1.0866714639469905E-02   7.2904453872679187E-03
         2          1   3.1877545920590493E-02   7.6497010036264868E-01   2.4168358746926052E-01   1.2760200976950709E-01
         2          2   2.3219240723306292E-01   4.5137248381171724E-01   3.2616053654278981E-01   4.1277326333561140E-02
         2          3   0.0000000000000000E+00   2.8868921831811833E-01   1.6708573405247359E-01   1.1502502562024551E-01
         2          4   1.3819344173174420E-06   3.5104227498521484E-01   1.5303981797503100E-01   1.3574395720375984E-01
         2          5   1.8658384306517908E-02   7.0302931408706226E-01   1.9974997854171059E-01   1.2058102996019471E-01
         2          6   1.5856586165738343E-01   3.2650506246762206E-01   2.3063718092460969E-01   3.0554369174989680E-02
         2          7   0.0000000000000000E+00   2.4797097298321058E-01   1.4029318734263921E-01   9.7565365168609752E-02
         2          8   6.0989843505485408E-07   3.1389629422278742E-01   1.3193802286252954E-01   1.2071709064985291E-01
         2          9   6.7090744936777989E-03   6.0786974489680856E-01   1.4964179349452955E-01   1.1100884165902632E-01
         2         10   7.5399764342235609E-02   1.8860879525208199E-01   1.1991701199519551E-01   1.7333633772357311E-02
         2         11   0.0000000000000000E+00   1.8637823117691091E-01   1.0090512840752242E-01   7.1037061203966759E-02
         2         12   1.2651060999867850E-07   2.5365191937556958E-01   1.0108160547764464E-01   9.5879976191495131E-02
         2         13   1.6248216910937628E-03   5.0630622162832029E-01   1.1306065615391016E-01   1.0068816151717580E-01
         2         14   0.0000000000000000E+00   1.2584004494533454E-01   6.4055720407263386E-02   4.5513500667311128E-02
         2         15   1.3987904394802404E-08   1.8852596049779174E-01   7.1126171600599322E-02   6.8989807009855797E-02
         2         16   1.9327305965299704E-07   1.8067133227199295E-01   4.5718133352987148E-02   5.0836921182948004E-02
         2         17   5.1702094514239782E-11   8.6823141913767915E-02   2.3657393843984492E-02   2.6655598725131385E-02
         2         18   5.6269727090057386E-01   1.4668048250060863E+00   8.9694360099479520E-01   1.7257929565385235E-01
         2         19   1.4505495482344417E+00   1.9782359932147187E+00   1.7225004967386468E+00   9.2366050627888677E-02
         2         20   1.7088262462895451E-01   6.8861434235368479E-01   4.8264935267966796E-01   1.7912979607049551E-01
         2         21   1.5956253415481098E-01   7.3893701482678387E-01   4.6049894976397882E-01   1.8551220790359360E-01
         2         22   3.6567599601653455E-01   1.2240525222717964E+00   6.6741909858530057E-01   1.6421493861207664E-01
         2         23   1.0041217451707971E+00   1.4348651672388735E+00   1.2244028970455891E+00   8.1536450810932373E-02
         2         24   8.8625109764951818E-02   5.5224840179009482E-01   3.7112688322629384E-01   1.6869190401251533E-01
         2         25   8.6133251156372881E-02   6.0652849831902622E-01   3.5195624213673171E-01   1.7783015714808861E-01
         2         26   1.4607607921971336E-01   9.4559398633461322E-01   3.8970802499135909E-01   1.4484100586453466E-01
         2         27   4.9175477779675175E-01   7.7814674032405318E-01   6.2487529364035377E-01   5.6334437767092675E-02
         2         28   2.1179210623181757E-02   3.8005879902175382E-01   2.3600267796154567E-01   1.3747482961265212E-01
         2         29   2.2056631601397803E-02   4.4342645824075705E-01   2.2247305860643996E-01   1.5406042242760079E-01
         2         30   3.8169482663890433E-02   7.3612493539028012E-01   2.1973988325188765E-01   1.2605603254868730E-01
         2         31   1.8863249692366071E-01   3.4674475003086364E-01   2.5689345139652320E-01   2.9628413966774892E-02
         2         32   2.4935751007021988E-03   2.5163290209937828E-01   1.4319760729421413E-01   9.5570075781786223E-02
         2         33   2.9602672220120623E-03   3.2194966580890294E-01   1.3904281980966218E-01   1.1943035334320834E-01
         2         34   6.8206943710987702E-03   5.7972186022171845E-01   1.3789394950352860E-01   1.1117023387163898E-01
         2         35   1.5044680879013181E-04   1.5673716550168024E-01   8.2239125053506640E-02   5.7674603238680504E-02
         2         36   2.0060596100576419E-04   2.2520844843556451E-01   8.7728081086339726E-02   8.2934620513031507E-02
         2         37   1.0981170917244688E-04   3.5632715182434205E-01   7.9216402142032946E-02   8.3354242376557031E-02
         2         38   2.9351428012996265E-07   9.6326429219597123E-02   3.2745086725127624E-02   3.2160001024545151E-02
         2         39   3.4760815445339775E-08   1.5233825326064090E-01   3.9581071664409072E-02   4.4277960968821417E-02
         2         40   1.3691486058131948E-02   1.3134811018526774E-01   4.9349352994821218E-02   2.1170663934892874E-02
         2         41   1.3691486058131948E-02   1.3134811018526774E-01   4.9349352994821218E-02   2.1170663934892874E-02
         2         42   6.3639743059909964E-02   3.5042811506684135E-01   1.3983297144255746E-01   3.0272766976342892E-02
         2         43   6.3639743059909964E-02   3.5042811506684135E-01   1.3983297144255746E-01   3.0272766976342892E-02
         2         44   1.7125772751505751E-02   1.5965244485516197E-01   1.0260794187108210E-01   5.0910953144779482E-02
         2         45   1.7125772751505751E-02   1.5965244485516197E-01   1.0260794187108210E-01   5.0910953144779482E-02
         2         46   1.6809029483001170E-02   1.6057267862176985E-01   8.8975948388065343E-02   4.7393982984913437E-02
         2         47   1.6809029483001170E-02   1.6057267862176985E-01   8.8975948388065343E-02   4.7393982984913437E-02
         2         48   5.4028802916466744E-02   2.8772924412136791E-01   1.1431688588031272E-01   2.3367221495356989E-02
         2         49   5.4028802916466744E-02   2.8772924412136791E-01   1.1431688588031272E-01   2.3367221495356989E-02
         2         50   1.5498418619494877E-02   1.3300812183510460E-01   8.6227057039948915E-02   4.1633770536445368E-02
         2         51   1.5498418619494877E-02   1.3300812183510460E-01   8.6227057039948915E-02   4.1633770536445368E-02
         2         52   1.5068602650570299E-02   1.3532051819798319E-01   7.5890235463689060E-02   3.9594142028688009E-02
         2         53   1.5068602650570299E-02   1.3532051819798319E-01   7.5890235463689060E-02   3.9594142028688009E-02
         2         54   9.4577833405941700E-03   2.5615141674330216E-01   8.8174161509501733E-02   4.8462254030740538E-02
         2         55   9.4577833405941700E-03   2.5615141674330216E-01   8.8174161509501733E-02   4.8462254030740538E-02
         2         56   0.0000000000000000E+00   1.9610447797334535E-01   6.3450738740449000E-02   6.2450562134598007E-02
         2         57   0.0000000000000000E+00   1.9610447797334535E-01   6.3450738740449000E-02   6.2450562134598007E-02
         2         58   5.5128652898887599E-07   1.2387072873412654E-01   2.7020234713752471E-02   2.7617914919521772E-02
         2         59   5.5128652898887599E-07   1.2387072873412654E-01   2.7020234713752471E-02   2.7617914919521772E-02
         2         60   2.4622678198862064E-02   1.0082735746166863E-01   5.1250195077128871E-02   1.5139173383397164E-02
         2         61   0.0000000000000000E+00   1.1202247400842066E-01   4.9511120692390234E-02   3.6090429325395697E-02
         2         62   0.0000000000000000E+00   1.1202247400842066E-01   4.9511120692390234E-02   3.6090429325395697E-02
         2         63   3.5898197544084943E-07   1.1775196876618600E-01   4.8114923179077888E-02   3.9847104748631228E-02
         2         64   3.5898197544084943E-07   1.1775196876618600E-01   4.8114923179077888E-02   3.9847104748631228E-02
         2         65   0.0000000000000000E+00   8.0004595293817732E-02   1.7102661577436895E-02   2.7455586684991731E-02
         2         66   0.0000000000000000E+00   8.0004595293817732E-02   1.7102661577436895E-02   2.7455586684991731E-02
         2         67   1.8306530698126964E-04   2.3122257473779698E-01   1.7444519731724503E-02   1.7438884845347565E-02
         2         68   8.1094450952382251E-03   3.3592187023972198E-01   6.4257643939737735E-02   2.8059719633508545E-02
         2         69   8.1094450952382251E-03   3.3592187023972198E-01   6.4257643939737735E-02   2.8059719633508545E-02
         2         70   0.0000000000000000E+00   1.1626193419507297E-01   3.0971432426608009E-02   2.6167811054348587E-02
         2         71   0.0000000000000000E+00   1.1626193419507297E-01   3.0971432426608009E-02   2.6167811054348587E-02
         2         72   2.8300396588641788E-07   7.6403149928122416E-02   1.8871712151306504E-02   1.7398393341842320E-02
         2         73   2.8300396588641788E-07   7.6403149928122416E-02   1.8871712151306504E-02   1.7398393341842320E-02
         2         74   0.0000000000000000E+00   1.1902663804254363E-01   6.3760603515344488E-02   4.4291955944606810E-02
         2         75   0.0000000000000000E+00   1.1902663804254363E-01   6.3760603515344488E-02   4.4291955944606810E-02
         2         76   4.1743197829427489E-07   1.2925854818732177E-01   5.1615296312619414E-02   4.4610769341727828E-02
         2         77   4.1743197829427489E-07   1.2925854818732177E-01   5.1615296312619414E-02   4.4610769341727828E-02
         2         78   6.3451681899950006E-03   1.6316185587885965E-01   6.2551935216023175E-02   3.6735982532310370E-02
         2         79   6.3451681899950006E-03   1.6316185587885965E-01   6.2551935216023175E-02   3.6735982532310370E-02
         2         80   0.0000000000000000E+00   1.4710387877896253E-01   4.6848121784408940E-02   4.7486250685239352E-02
         2         81   0.0000000000000000E+00   1.4710387877896253E-01   4.6848121784408940E-02   4.7486250685239352E-02