272
# CELL(abcABC):   19.477407179001222   33.79548408918174   27.932419811159168   91.92599999983985   105.04600000032146   89.79699999989408 cell{atomic_unit}  Traj: positions{atomic_unit} Step:          0  Bead:       0
Al       1.15470961       8.17861662       6.28153426
Al       6.11386474      33.52507059       6.28153426
Al       6.05659578       5.34364985       6.26805458
Al       1.21717842      13.79246782       6.26805458
Si       9.32342845       5.69538455       1.22125966
Si       4.48401109      14.14420255       1.22125966
Si       4.60741423       2.77063258       1.26439466
Si      -0.23200311      11.21945058       1.26439466
O       -0.65053162       5.73912377       4.27036493
O        4.24875460      14.18794177       4.27036493
O       -0.01584458      11.00520382       4.29732431
O        4.82357278       2.55638583       4.29732431
O        0.02993443       8.44881800       0.00000000
O        4.86935179       0.00000000       0.00000000
O        1.89164497       3.85755208       0.40439062
O        6.79093122      12.30637008       0.40439062
O        1.96064486      12.91102711       0.01347968
O        6.80006223       4.46220913       0.01347968
O       -0.63323609      16.25922779       4.38089837
O        4.20618125       7.81040982       4.38089837
O        7.15837246       2.52450596       8.18217018
O        2.31895510      10.97332395       8.18217018
O       -1.80338187       7.70979638       8.14981893
O        3.09590437      16.15861437       8.14981893
O       -1.78651014      14.22351602       8.20912956
O        3.05290721       5.77469802       8.20912956
H        0.23407996       0.95120281       4.39437805
H        5.13336621       9.40002081       4.39437805
H       -2.05593710       2.43044690       9.96148890
H        2.84334915      10.87926489       9.96148890
H       -2.27303407       8.21094445       9.86713110
H        2.56638329      -0.23787355       9.86713110
H        2.57994948       4.99715050       9.81321233
H       -2.25946788      13.44596849       9.81321233
Al      -2.47084106       7.72207279      19.76122156
Al       2.48831407      33.06852678      19.76122156
Al       2.43104511       4.88710602      19.74774187
Al      -2.40837225      13.33592401      19.74774187
Si       5.69787778       5.23884074      14.70094695
Si       0.85846042      13.68765872      14.70094695
Si       0.98186356       2.31408877      14.74408195
Si      -3.85755378      10.76290677      14.74408195
O       -4.27608229       5.28257996      17.75005222
O        0.62320394      13.73139794      17.75005222
O       -3.64139525      10.54866001      17.77701158
O        1.19802211       2.09984201      17.77701158
O       -3.59561624       7.99227419      13.47968727
O        1.24380113      -0.45654381      13.47968727
O       -1.73390570       3.40100827      13.88407789
O        3.16538053      11.84982627      13.88407789
O       -1.66490581      12.45448330      13.49316697
O        3.17451156       4.00566530      13.49316697
O       -4.25878676      15.80268398      17.86058564
O        0.58063058       7.35386601      17.86058564
O        3.53282177       2.06796215      21.66185747
O       -1.30659557      10.51678012      21.66185747
O       -5.42893254       7.25325257      21.62950621
O       -0.52964630      15.70207056      21.62950621
O       -5.41206082      13.76697221      21.68881683
O       -0.57264346       5.31815421      21.68881683
H       -3.39147071       0.49465900      17.87406534
H        1.50781554       8.94347700      17.87406534
H       -5.68148777       1.97390309      23.44117617
H       -0.78220152      10.42272108      23.44117617
H       -5.89858474       7.75440064      23.34681837
H       -1.05916738      -0.69441736      23.34681837
H       -1.04560119       4.54060669      23.29289963
H       -5.88501855      12.98942468      23.29289963
Al       1.21457850      25.07625260       6.28153426
Al       6.05399586      16.62743460       6.28153426
Al       6.11646467      22.24128582       6.26805458
Al       1.27704730      30.69010382       6.26805458
Si       9.38329734      22.59302053       1.22125966
Si       4.54387997      31.04183852       1.22125966
Si       4.66728312      19.66826857       1.26439466
Si      -0.17213423      28.11708657       1.26439466
O       -0.59066274      22.63675975       4.27036493
O        4.30862349      31.08557775       4.27036493
O        0.04402431      27.90283981       4.29732431
O        4.88344167      19.45402182       4.29732431
O        0.08980332      25.34645397       0.00000000
O        4.92922068      16.89763599       0.00000000
O        1.95151386      20.75518807       0.40439062
O        6.85080011      29.20400607       0.40439062
O        2.02051375      29.80866310       0.01347968
O        6.85993111      21.35984510       0.01347968
O       -0.57336721      33.15686379       4.38089837
O        4.26605013      24.70804579       4.38089837
O        7.21824134      19.42214193       8.18217018
O        2.37882398      27.87095993       8.18217018
O       -1.74351299      24.60743237       8.14981893
O        3.15577326      33.05625037       8.14981893
O       -1.72664127      31.12115201       8.20912956
O        3.11277609      22.67233401       8.20912956
H        0.29394885      17.84883880       4.39437805
H        5.19323509      26.29765680       4.39437805
H       -1.99606821      19.32808289       9.96148890
H        2.90321803      27.77690087       9.96148890
H       -2.21316519      25.10858042       9.86713110
H        2.62625217      16.65976245       9.86713110
H        2.63981837      21.89478649       9.81321233
H       -2.19959899      30.34360447       9.81321233
Al      -2.41097217      24.61970879      19.76122156
Al       2.42844519      16.17089079      19.76122156
Al       2.49091400      21.78474201      19.74774187
Al      -2.34850337      30.23356001      19.74774187
Si       5.75774667      22.13647672      14.70094695
Si       0.91832931      30.58529471      14.70094695
Si       1.04173245      19.21172476      14.74408195
Si      -3.79768490      27.66054274      14.74408195
O       -4.21621341      22.18021594      17.75005222
O        0.68307282      30.62903394      17.75005222
O       -3.58152636      27.44629599      17.77701158
O        1.25789100      18.99747801      17.77701158
O       -3.53574735      24.88991016      13.47968727
O        1.30367001      16.44109216      13.47968727
O       -1.67403681      20.29864426      13.88407789
O        3.22524942      28.74746226      13.88407789
O       -1.60503692      29.35211929      13.49316697
O        3.23438044      20.90330129      13.49316697
O       -4.19891788      32.70031998      17.86058564
O        0.64049946      24.25150198      17.86058564
O        3.59269066      18.96559812      21.66185747
O       -1.24672669      27.41441612      21.66185747
O       -5.36906366      24.15088856      21.62950621
O       -0.46977741      32.59970654      21.62950621
O       -5.35219194      30.66460820      21.68881683
O       -0.51277458      22.21579020      21.68881683
H       -3.33160182      17.39229499      17.87406534
H        1.56768442      25.84111299      17.87406534
H       -5.62161888      18.87153906      23.44117617
H       -0.72233264      27.32035706      23.44117617
H       -5.83871586      24.65203661      23.34681837
H       -0.99929849      16.20321862      23.34681837
H       -0.98573230      21.43824266      23.29289963
H       -5.82514966      29.88706066      23.29289963
Al      10.89341320       8.17861662       6.28153426
Al      15.85256833      33.52507059       6.28153426
Al      15.79529937       5.34364985       6.26805458
Al      10.95588201      13.79246782       6.26805458
Si      19.06213204       5.69538455       1.22125966
Si      14.22271468      14.14420255       1.22125966
Si      14.34611782       2.77063258       1.26439466
Si       9.50670048      11.21945058       1.26439466
O        9.08817197       5.73912377       4.27036493
O       13.98745819      14.18794177       4.27036493
O        9.72285901      11.00520382       4.29732431
O       14.56227637       2.55638583       4.29732431
O        9.76863802       8.44881800       0.00000000
O       14.60805538       0.00000000       0.00000000
O       11.63034856       3.85755208       0.40439062
O       16.52963481      12.30637008       0.40439062
O       11.69934845      12.91102711       0.01347968
O       16.53876581       4.46220913       0.01347968
O        9.10546750      16.25922779       4.38089837
O       13.94488484       7.81040982       4.38089837
O       16.89707605       2.52450596       8.18217018
O       12.05765869      10.97332395       8.18217018
O        7.93532171       7.70979638       8.14981893
O       12.83460796      16.15861437       8.14981893
O        7.95219345      14.22351602       8.20912956
O       12.79161080       5.77469802       8.20912956
H        9.97278355       0.95120281       4.39437805
H       14.87206980       9.40002081       4.39437805
H        7.68276649       2.43044690       9.96148890
H       12.58205274      10.87926489       9.96148890
H        7.46566952       8.21094445       9.86713110
H       12.30508688      -0.23787355       9.86713110
H       12.31865307       4.99715050       9.81321233
H        7.47923571      13.44596849       9.81321233
Al       7.26786253       7.72207279      19.76122156
Al      12.22701766      33.06852678      19.76122156
Al      12.16974870       4.88710602      19.74774187
Al       7.33033134      13.33592401      19.74774187
Si      15.43658137       5.23884074      14.70094695
Si      10.59716401      13.68765872      14.70094695
Si      10.72056715       2.31408877      14.74408195
Si       5.88114981      10.76290677      14.74408195
O        5.46262130       5.28257996      17.75005222
O       10.36190752      13.73139794      17.75005222
O        6.09730834      10.54866001      17.77701158
O       10.93672570       2.09984201      17.77701158
O        6.14308735       7.99227419      13.47968727
O       10.98250471      -0.45654381      13.47968727
O        8.00479789       3.40100827      13.88407789
O       12.90408412      11.84982627      13.88407789
O        8.07379778      12.45448330      13.49316697
O       12.91321515       4.00566530      13.49316697
O        5.47991683      15.80268398      17.86058564
O       10.31933417       7.35386601      17.86058564
O       13.27152536       2.06796215      21.66185747
O        8.43210802      10.51678012      21.66185747
O        4.30977105       7.25325257      21.62950621
O        9.20905729      15.70207056      21.62950621
O        4.32664277      13.76697221      21.68881683
O        9.16606013       5.31815421      21.68881683
H        6.34723288       0.49465900      17.87406534
H       11.24651913       8.94347700      17.87406534
H        4.05721582       1.97390309      23.44117617
H        8.95650207      10.42272108      23.44117617
H        3.84011885       7.75440064      23.34681837
H        8.67953621      -0.69441736      23.34681837
H        8.69310240       4.54060669      23.29289963
H        3.85368504      12.98942468      23.29289963
Al      10.95328208      25.07625260       6.28153426
Al      15.79269945      16.62743460       6.28153426
Al      15.85516825      22.24128582       6.26805458
Al      11.01575089      30.69010382       6.26805458
Si      19.12200093      22.59302053       1.22125966
Si      14.28258356      31.04183852       1.22125966
Si      14.40598671      19.66826857       1.26439466
Si       9.56656936      28.11708657       1.26439466
O        9.14804085      22.63675975       4.27036493
O       14.04732708      31.08557775       4.27036493
O        9.78272790      27.90283981       4.29732431
O       14.62214526      19.45402182       4.29732431
O        9.82850691      25.34645397       0.00000000
O       14.66792427      16.89763599       0.00000000
O       11.69021745      20.75518807       0.40439062
O       16.58950370      29.20400607       0.40439062
O       11.75921734      29.80866310       0.01347968
O       16.59863470      21.35984510       0.01347968
O        9.16533638      33.15686379       4.38089837
O       14.00475372      24.70804579       4.38089837
O       16.95694493      19.42214193       8.18217018
O       12.11752757      27.87095993       8.18217018
O        7.99519060      24.60743237       8.14981893
O       12.89447685      33.05625037       8.14981893
O        8.01206232      31.12115201       8.20912956
O       12.85147968      22.67233401       8.20912956
H       10.03265243      17.84883880       4.39437805
H       14.93193868      26.29765680       4.39437805
H        7.74263537      19.32808289       9.96148890
H       12.64192162      27.77690087       9.96148890
H        7.52553840      25.10858042       9.86713110
H       12.36495576      16.65976245       9.86713110
H       12.37852196      21.89478649       9.81321233
H        7.53910460      30.34360447       9.81321233
Al       7.32773142      24.61970879      19.76122156
Al      12.16714878      16.17089079      19.76122156
Al      12.22961759      21.78474201      19.74774187
Al       7.39020022      30.23356001      19.74774187
Si      15.49645026      22.13647672      14.70094695
Si      10.65703289      30.58529471      14.70094695
Si      10.78043604      19.21172476      14.74408195
Si       5.94101869      27.66054274      14.74408195
O        5.52249018      22.18021594      17.75005222
O       10.42177641      30.62903394      17.75005222
O        6.15717723      27.44629599      17.77701158
O       10.99659459      18.99747801      17.77701158
O        6.20295624      24.88991016      13.47968727
O       11.04237360      16.44109216      13.47968727
O        8.06466678      20.29864426      13.88407789
O       12.96395301      28.74746226      13.88407789
O        8.13366667      29.35211929      13.49316697
O       12.97308403      20.90330129      13.49316697
O        5.53978571      32.70031998      17.86058564
O       10.37920305      24.25150198      17.86058564
O       13.33139425      18.96559812      21.66185747
O        8.49197690      27.41441612      21.66185747
O        4.36963993      24.15088856      21.62950621
O        9.26892618      32.59970654      21.62950621
O        4.38651165      30.66460820      21.68881683
O        9.22592901      22.21579020      21.68881683
H        6.40710177      17.39229499      17.87406534
H       11.30638801      25.84111299      17.87406534
H        4.11708471      18.87153906      23.44117617
H        9.01637095      27.32035706      23.44117617
H        3.89998773      24.65203661      23.34681837
H        8.73940509      16.20321862      23.34681837
H        8.75297129      21.43824266      23.29289963
H        3.91355393      29.88706066      23.29289963
