data.lmp (written by xyz2lammps.py)

272    atoms

4      atom types

0.0  19.477407179001222  xlo xhi
0.0   33.79527197239812  ylo yhi
0.0   26.95937456301112  zlo zhi
0.11973777089245191   -7.251101341479786   -0.91308762651582 xy xz yz

Atoms

	1   3          1.15470961          8.17861662          6.28153426
	2   3          6.11386474         33.52507059          6.28153426
	3   3          6.05659578          5.34364985          6.26805458
	4   3          1.21717842         13.79246782          6.26805458
	5   4          9.32342845          5.69538455          1.22125966
	6   4          4.48401109         14.14420255          1.22125966
	7   4          4.60741423          2.77063258          1.26439466
	8   4         -0.23200311         11.21945058          1.26439466
	9   2         -0.65053162          5.73912377          4.27036493
	10  2           4.2487546         14.18794177          4.27036493
	11  2         -0.01584458         11.00520382          4.29732431
	12  2          4.82357278          2.55638583          4.29732431
	13  2          0.02993443            8.448818                 0.0
	14  2          4.86935179                 0.0                 0.0
	15  2          1.89164497          3.85755208          0.40439062
	16  2          6.79093122         12.30637008          0.40439062
	17  2          1.96064486         12.91102711          0.01347968
	18  2          6.80006223          4.46220913          0.01347968
	19  2         -0.63323609         16.25922779          4.38089837
	20  2          4.20618125          7.81040982          4.38089837
	21  2          7.15837246          2.52450596          8.18217018
	22  2           2.3189551         10.97332395          8.18217018
	23  2         -1.80338187          7.70979638          8.14981893
	24  2          3.09590437         16.15861437          8.14981893
	25  2         -1.78651014         14.22351602          8.20912956
	26  2          3.05290721          5.77469802          8.20912956
	27  1          0.23407996          0.95120281          4.39437805
	28  1          5.13336621          9.40002081          4.39437805
	29  1          -2.0559371           2.4304469           9.9614889
	30  1          2.84334915         10.87926489           9.9614889
	31  1         -2.27303407          8.21094445           9.8671311
	32  1          2.56638329         -0.23787355           9.8671311
	33  1          2.57994948           4.9971505          9.81321233
	34  1         -2.25946788         13.44596849          9.81321233
	35  3         -2.47084106          7.72207279         19.76122156
	36  3          2.48831407         33.06852678         19.76122156
	37  3          2.43104511          4.88710602         19.74774187
	38  3         -2.40837225         13.33592401         19.74774187
	39  4          5.69787778          5.23884074         14.70094695
	40  4          0.85846042         13.68765872         14.70094695
	41  4          0.98186356          2.31408877         14.74408195
	42  4         -3.85755378         10.76290677         14.74408195
	43  2         -4.27608229          5.28257996         17.75005222
	44  2          0.62320394         13.73139794         17.75005222
	45  2         -3.64139525         10.54866001         17.77701158
	46  2          1.19802211          2.09984201         17.77701158
	47  2         -3.59561624          7.99227419         13.47968727
	48  2          1.24380113         -0.45654381         13.47968727
	49  2          -1.7339057          3.40100827         13.88407789
	50  2          3.16538053         11.84982627         13.88407789
	51  2         -1.66490581          12.4544833         13.49316697
	52  2          3.17451156           4.0056653         13.49316697
	53  2         -4.25878676         15.80268398         17.86058564
	54  2          0.58063058          7.35386601         17.86058564
	55  2          3.53282177          2.06796215         21.66185747
	56  2         -1.30659557         10.51678012         21.66185747
	57  2         -5.42893254          7.25325257         21.62950621
	58  2          -0.5296463         15.70207056         21.62950621
	59  2         -5.41206082         13.76697221         21.68881683
	60  2         -0.57264346          5.31815421         21.68881683
	61  1         -3.39147071            0.494659         17.87406534
	62  1          1.50781554            8.943477         17.87406534
	63  1         -5.68148777          1.97390309         23.44117617
	64  1         -0.78220152         10.42272108         23.44117617
	65  1         -5.89858474          7.75440064         23.34681837
	66  1         -1.05916738         -0.69441736         23.34681837
	67  1         -1.04560119          4.54060669         23.29289963
	68  1         -5.88501855         12.98942468         23.29289963
	69  3           1.2145785          25.0762526          6.28153426
	70  3          6.05399586          16.6274346          6.28153426
	71  3          6.11646467         22.24128582          6.26805458
	72  3           1.2770473         30.69010382          6.26805458
	73  4          9.38329734         22.59302053          1.22125966
	74  4          4.54387997         31.04183852          1.22125966
	75  4          4.66728312         19.66826857          1.26439466
	76  4         -0.17213423         28.11708657          1.26439466
	77  2         -0.59066274         22.63675975          4.27036493
	78  2          4.30862349         31.08557775          4.27036493
	79  2          0.04402431         27.90283981          4.29732431
	80  2          4.88344167         19.45402182          4.29732431
	81  2          0.08980332         25.34645397                 0.0
	82  2          4.92922068         16.89763599                 0.0
	83  2          1.95151386         20.75518807          0.40439062
	84  2          6.85080011         29.20400607          0.40439062
	85  2          2.02051375          29.8086631          0.01347968
	86  2          6.85993111          21.3598451          0.01347968
	87  2         -0.57336721         33.15686379          4.38089837
	88  2          4.26605013         24.70804579          4.38089837
	89  2          7.21824134         19.42214193          8.18217018
	90  2          2.37882398         27.87095993          8.18217018
	91  2         -1.74351299         24.60743237          8.14981893
	92  2          3.15577326         33.05625037          8.14981893
	93  2         -1.72664127         31.12115201          8.20912956
	94  2          3.11277609         22.67233401          8.20912956
	95  1          0.29394885          17.8488388          4.39437805
	96  1          5.19323509          26.2976568          4.39437805
	97  1         -1.99606821         19.32808289           9.9614889
	98  1          2.90321803         27.77690087           9.9614889
	99  1         -2.21316519         25.10858042           9.8671311
	100  1          2.62625217         16.65976245           9.8671311
	101  1          2.63981837         21.89478649          9.81321233
	102  1         -2.19959899         30.34360447          9.81321233
	103  3         -2.41097217         24.61970879         19.76122156
	104  3          2.42844519         16.17089079         19.76122156
	105  3            2.490914         21.78474201         19.74774187
	106  3         -2.34850337         30.23356001         19.74774187
	107  4          5.75774667         22.13647672         14.70094695
	108  4          0.91832931         30.58529471         14.70094695
	109  4          1.04173245         19.21172476         14.74408195
	110  4          -3.7976849         27.66054274         14.74408195
	111  2         -4.21621341         22.18021594         17.75005222
	112  2          0.68307282         30.62903394         17.75005222
	113  2         -3.58152636         27.44629599         17.77701158
	114  2            1.257891         18.99747801         17.77701158
	115  2         -3.53574735         24.88991016         13.47968727
	116  2          1.30367001         16.44109216         13.47968727
	117  2         -1.67403681         20.29864426         13.88407789
	118  2          3.22524942         28.74746226         13.88407789
	119  2         -1.60503692         29.35211929         13.49316697
	120  2          3.23438044         20.90330129         13.49316697
	121  2         -4.19891788         32.70031998         17.86058564
	122  2          0.64049946         24.25150198         17.86058564
	123  2          3.59269066         18.96559812         21.66185747
	124  2         -1.24672669         27.41441612         21.66185747
	125  2         -5.36906366         24.15088856         21.62950621
	126  2         -0.46977741         32.59970654         21.62950621
	127  2         -5.35219194          30.6646082         21.68881683
	128  2         -0.51277458          22.2157902         21.68881683
	129  1         -3.33160182         17.39229499         17.87406534
	130  1          1.56768442         25.84111299         17.87406534
	131  1         -5.62161888         18.87153906         23.44117617
	132  1         -0.72233264         27.32035706         23.44117617
	133  1         -5.83871586         24.65203661         23.34681837
	134  1         -0.99929849         16.20321862         23.34681837
	135  1          -0.9857323         21.43824266         23.29289963
	136  1         -5.82514966         29.88706066         23.29289963
	137  3          10.8934132          8.17861662          6.28153426
	138  3         15.85256833         33.52507059          6.28153426
	139  3         15.79529937          5.34364985          6.26805458
	140  3         10.95588201         13.79246782          6.26805458
	141  4         19.06213204          5.69538455          1.22125966
	142  4         14.22271468         14.14420255          1.22125966
	143  4         14.34611782          2.77063258          1.26439466
	144  4          9.50670048         11.21945058          1.26439466
	145  2          9.08817197          5.73912377          4.27036493
	146  2         13.98745819         14.18794177          4.27036493
	147  2          9.72285901         11.00520382          4.29732431
	148  2         14.56227637          2.55638583          4.29732431
	149  2          9.76863802            8.448818                 0.0
	150  2         14.60805538                 0.0                 0.0
	151  2         11.63034856          3.85755208          0.40439062
	152  2         16.52963481         12.30637008          0.40439062
	153  2         11.69934845         12.91102711          0.01347968
	154  2         16.53876581          4.46220913          0.01347968
	155  2           9.1054675         16.25922779          4.38089837
	156  2         13.94488484          7.81040982          4.38089837
	157  2         16.89707605          2.52450596          8.18217018
	158  2         12.05765869         10.97332395          8.18217018
	159  2          7.93532171          7.70979638          8.14981893
	160  2         12.83460796         16.15861437          8.14981893
	161  2          7.95219345         14.22351602          8.20912956
	162  2          12.7916108          5.77469802          8.20912956
	163  1          9.97278355          0.95120281          4.39437805
	164  1          14.8720698          9.40002081          4.39437805
	165  1          7.68276649           2.4304469           9.9614889
	166  1         12.58205274         10.87926489           9.9614889
	167  1          7.46566952          8.21094445           9.8671311
	168  1         12.30508688         -0.23787355           9.8671311
	169  1         12.31865307           4.9971505          9.81321233
	170  1          7.47923571         13.44596849          9.81321233
	171  3          7.26786253          7.72207279         19.76122156
	172  3         12.22701766         33.06852678         19.76122156
	173  3          12.1697487          4.88710602         19.74774187
	174  3          7.33033134         13.33592401         19.74774187
	175  4         15.43658137          5.23884074         14.70094695
	176  4         10.59716401         13.68765872         14.70094695
	177  4         10.72056715          2.31408877         14.74408195
	178  4          5.88114981         10.76290677         14.74408195
	179  2           5.4626213          5.28257996         17.75005222
	180  2         10.36190752         13.73139794         17.75005222
	181  2          6.09730834         10.54866001         17.77701158
	182  2          10.9367257          2.09984201         17.77701158
	183  2          6.14308735          7.99227419         13.47968727
	184  2         10.98250471         -0.45654381         13.47968727
	185  2          8.00479789          3.40100827         13.88407789
	186  2         12.90408412         11.84982627         13.88407789
	187  2          8.07379778          12.4544833         13.49316697
	188  2         12.91321515           4.0056653         13.49316697
	189  2          5.47991683         15.80268398         17.86058564
	190  2         10.31933417          7.35386601         17.86058564
	191  2         13.27152536          2.06796215         21.66185747
	192  2          8.43210802         10.51678012         21.66185747
	193  2          4.30977105          7.25325257         21.62950621
	194  2          9.20905729         15.70207056         21.62950621
	195  2          4.32664277         13.76697221         21.68881683
	196  2          9.16606013          5.31815421         21.68881683
	197  1          6.34723288            0.494659         17.87406534
	198  1         11.24651913            8.943477         17.87406534
	199  1          4.05721582          1.97390309         23.44117617
	200  1          8.95650207         10.42272108         23.44117617
	201  1          3.84011885          7.75440064         23.34681837
	202  1          8.67953621         -0.69441736         23.34681837
	203  1           8.6931024          4.54060669         23.29289963
	204  1          3.85368504         12.98942468         23.29289963
	205  3         10.95328208          25.0762526          6.28153426
	206  3         15.79269945          16.6274346          6.28153426
	207  3         15.85516825         22.24128582          6.26805458
	208  3         11.01575089         30.69010382          6.26805458
	209  4         19.12200093         22.59302053          1.22125966
	210  4         14.28258356         31.04183852          1.22125966
	211  4         14.40598671         19.66826857          1.26439466
	212  4          9.56656936         28.11708657          1.26439466
	213  2          9.14804085         22.63675975          4.27036493
	214  2         14.04732708         31.08557775          4.27036493
	215  2           9.7827279         27.90283981          4.29732431
	216  2         14.62214526         19.45402182          4.29732431
	217  2          9.82850691         25.34645397                 0.0
	218  2         14.66792427         16.89763599                 0.0
	219  2         11.69021745         20.75518807          0.40439062
	220  2          16.5895037         29.20400607          0.40439062
	221  2         11.75921734          29.8086631          0.01347968
	222  2          16.5986347          21.3598451          0.01347968
	223  2          9.16533638         33.15686379          4.38089837
	224  2         14.00475372         24.70804579          4.38089837
	225  2         16.95694493         19.42214193          8.18217018
	226  2         12.11752757         27.87095993          8.18217018
	227  2           7.9951906         24.60743237          8.14981893
	228  2         12.89447685         33.05625037          8.14981893
	229  2          8.01206232         31.12115201          8.20912956
	230  2         12.85147968         22.67233401          8.20912956
	231  1         10.03265243          17.8488388          4.39437805
	232  1         14.93193868          26.2976568          4.39437805
	233  1          7.74263537         19.32808289           9.9614889
	234  1         12.64192162         27.77690087           9.9614889
	235  1           7.5255384         25.10858042           9.8671311
	236  1         12.36495576         16.65976245           9.8671311
	237  1         12.37852196         21.89478649          9.81321233
	238  1           7.5391046         30.34360447          9.81321233
	239  3          7.32773142         24.61970879         19.76122156
	240  3         12.16714878         16.17089079         19.76122156
	241  3         12.22961759         21.78474201         19.74774187
	242  3          7.39020022         30.23356001         19.74774187
	243  4         15.49645026         22.13647672         14.70094695
	244  4         10.65703289         30.58529471         14.70094695
	245  4         10.78043604         19.21172476         14.74408195
	246  4          5.94101869         27.66054274         14.74408195
	247  2          5.52249018         22.18021594         17.75005222
	248  2         10.42177641         30.62903394         17.75005222
	249  2          6.15717723         27.44629599         17.77701158
	250  2         10.99659459         18.99747801         17.77701158
	251  2          6.20295624         24.88991016         13.47968727
	252  2          11.0423736         16.44109216         13.47968727
	253  2          8.06466678         20.29864426         13.88407789
	254  2         12.96395301         28.74746226         13.88407789
	255  2          8.13366667         29.35211929         13.49316697
	256  2         12.97308403         20.90330129         13.49316697
	257  2          5.53978571         32.70031998         17.86058564
	258  2         10.37920305         24.25150198         17.86058564
	259  2         13.33139425         18.96559812         21.66185747
	260  2           8.4919769         27.41441612         21.66185747
	261  2          4.36963993         24.15088856         21.62950621
	262  2          9.26892618         32.59970654         21.62950621
	263  2          4.38651165          30.6646082         21.68881683
	264  2          9.22592901          22.2157902         21.68881683
	265  1          6.40710177         17.39229499         17.87406534
	266  1         11.30638801         25.84111299         17.87406534
	267  1          4.11708471         18.87153906         23.44117617
	268  1          9.01637095         27.32035706         23.44117617
	269  1          3.89998773         24.65203661         23.34681837
	270  1          8.73940509         16.20321862         23.34681837
	271  1          8.75297129         21.43824266         23.29289963
	272  1          3.91355393         29.88706066         23.29289963
