################################################################################
# Symmetry function scaling data.
################################################################################
# Col  Name     Description
################################################################################
# 1    e_index  Element index.
# 2    sf_index Symmetry function index.
# 3    sf_min   Symmetry function minimum.
# 4    sf_max   Symmetry function maximum.
# 5    sf_mean  Symmetry function mean.
# 6    sf_sigma Symmetry function sigma.
#########################################################################################################################
#        1          2                        3                        4                        5                        6
#  e_index   sf_index                   sf_min                   sf_max                  sf_mean                 sf_sigma
#########################################################################################################################
         1          1   4.0634616911393840E-05   3.2009270426450265E-01   1.0911562653514979E-01   6.3264987034893375E-02
         1          2   4.2218793085131817E-01   6.5363213598438652E-01   5.3784853768302254E-01   2.7088592341317330E-02
         1          3   7.8925841977498939E-02   1.5783419202512011E-01   1.0401829941143133E-01   6.1048290402009753E-03
         1          4   9.0120907375349799E-07   1.4540475854102347E-01   4.5311532682442590E-02   2.9442084053762099E-02
         1          5   1.8390445036308778E-05   2.7303519252794117E-01   7.5748241196595623E-02   4.5342990607632333E-02
         1          6   3.5334090934114831E-01   5.4732521006136559E-01   4.4414247095927684E-01   2.1738278380210196E-02
         1          7   5.6029871010432442E-02   1.1928462319732802E-01   7.6234455093626002E-02   4.8293811604048411E-03
         1          8   3.9876597032050902E-07   1.0428492066321264E-01   2.9592304633874651E-02   1.9296549392506173E-02
         1          9   4.0044237972553414E-06   2.0467724871696938E-01   3.8412533400418856E-02   2.4767910553144784E-02
         1         10   2.6956860306134506E-01   4.1515377890075789E-01   3.3291014786364942E-01   1.5967752765972790E-02
         1         11   2.9043775539674348E-02   7.0563409176198952E-02   4.2171389277629881E-02   3.1586295930920139E-03
         1         12   8.3127111094924196E-08   5.6180378378775098E-02   1.3203744224780408E-02   8.7640320579685464E-03
         1         13   4.7404618469172629E-07   1.3962980328666189E-01   1.5538761727493165E-02   1.1449156288483146E-02
         1         14   2.0850436333796435E-01   3.1490921313977316E-01   2.5242757673430033E-01   1.1371287762430581E-02
         1         15   1.1599514825979445E-02   3.4518321719610785E-02   1.8546570589978977E-02   1.7395963090720071E-03
         1         16   9.2550376215434355E-09   2.7881977330858416E-02   4.3789146850241713E-03   3.1004250918896074E-03
         1         17   2.9898068500818164E-05   1.8165706631370879E-02   1.0557394846649150E-02   5.1721798959426394E-03
         1         18   1.7381049429376520E-02   3.5591095786273022E-02   2.8048555353912114E-02   3.2538195632318859E-03
         1         19   3.2969294323111119E-03   8.7365862158336124E-03   5.1932758476789572E-03   6.6653040936354895E-04
         1         20   7.0242035263664930E-07   1.4908538631586334E-02   6.2771777945369684E-03   4.1563598212732769E-03
         1         21   5.2763565659679969E-13   1.3441012609704135E-02   1.0744809089913401E-04   2.2584770258119076E-04
         1         22   7.2784806443908293E-02   1.3254902205085134E-01   1.0377695832376495E-01   6.3099475287307647E-03
         1         23   3.1656456644583282E-02   7.8421360871012619E-02   5.4023096155397993E-02   4.9945934600746896E-03
         1         24   4.4625447614088224E-05   7.3899790264395811E-03   3.5320299556916945E-03   1.1872523049982922E-03
         1         25   3.7737931947001238E-03   1.3915691212051429E-02   9.3128540002505866E-03   1.1613950539195220E-03
         1         26   2.1984739238963627E-05   3.2413038731477876E-03   1.3424549200448568E-03   5.9237531707263791E-04
         1         27   1.0167061904349924E-06   5.6200969943011117E-03   2.2087176193643981E-03   1.2207479672979383E-03
         1         28   6.0065409181894189E-03   2.7469727904940362E-02   1.4792094768700574E-02   2.2843342784771587E-03
         1         29   1.7569406160754527E-04   2.9563066388444926E-03   9.5590939706700234E-04   2.7364297902986330E-04
         1         30   2.7251993555791038E-01   9.5521045307324426E-01   6.9207093311962176E-01   1.8748325784552464E-01
         1         31   1.7555390979701586E+00   2.2548955885024879E+00   2.0096888140757452E+00   8.3800878103071519E-02
         1         32   3.7749601257233650E-01   5.9511719463318957E-01   4.5324392756795434E-01   2.4677627526380634E-02
         1         33   1.7368174144527143E-01   6.4870282399641777E-01   3.6337526650309232E-01   1.2692565966523406E-01
         1         34   1.4378611892228810E-01   7.1843687755314234E-01   4.8153937262808683E-01   1.5888335568079101E-01
         1         35   1.2844702852944438E+00   1.6897625518961563E+00   1.4939679285628158E+00   6.4679185185796823E-02
         1         36   2.7401671095202501E-01   4.4989702097655793E-01   3.3217399051175006E-01   1.8934131705182961E-02
         1         37   9.3155852518969684E-02   4.8618157159185299E-01   2.4773814994686141E-01   1.0264964430525216E-01
         1         38   3.5634564593823873E-02   4.4966258665688991E-01   2.3361982945794871E-01   1.0036407805170949E-01
         1         39   7.2954223895156001E-01   9.9047341657623689E-01   8.7030401661926926E-01   3.7542745388232657E-02
         1         40   1.4279144095932167E-01   2.5591900944511653E-01   1.8055536919920961E-01   1.0443849818706464E-02
         1         41   2.4073956943891233E-02   2.6291888497221794E-01   1.1298698967809505E-01   5.7941780430620218E-02
         1         42   4.6933908441086488E-03   2.8329249734933387E-01   8.9679079460358344E-02   4.7318318423679180E-02
         1         43   4.0343494719856232E-01   5.8331673179720400E-01   4.8957184325923292E-01   2.0602320811350758E-02
         1         44   6.0660167360631345E-02   1.2441639310711657E-01   8.1035018050995083E-02   5.0279283498179160E-03
         1         45   3.3346928986809537E-03   1.1392501104650755E-01   3.8436207077606539E-02   2.2526734518949845E-02
         1         46   3.4999390934688696E-04   1.7426344996932155E-01   2.8570503950564839E-02   1.8089231938232059E-02
         1         47   2.5456806286476436E-01   3.7987483875452743E-01   3.0761308374567770E-01   1.3169843529033951E-02
         1         48   2.0653980356750777E-02   5.2179650666397390E-02   3.0325018437084957E-02   2.3860206593432358E-03
         1         49   2.3323793790656051E-04   4.1012306361891251E-02   1.0019913650906155E-02   6.3597970206793423E-03
         1         50   6.8965004236601149E-07   5.9825678523056945E-02   2.3640516634564714E-03   2.4280323087270965E-03
         1         51   1.4139004978167322E-01   2.2122131023877586E-01   1.7847003551817436E-01   7.3864453564582875E-03
         1         52   1.4812018009628142E-03   6.9934548535898686E-03   2.8940441090088307E-03   3.9615736913859448E-04
         1         53   3.5010030902643966E-07   7.2656029637167465E-03   4.4270515837987752E-04   4.0148640084190719E-04
         1         54   3.7725475569814519E-12   7.6091492940422601E-03   3.6429536009025230E-05   9.7880427068350130E-05
         1         55   5.9840250163204642E-02   1.1956752591711518E-01   9.0030153417228073E-02   6.3362828402028530E-03
         1         56   2.6052594161960419E-02   7.0759257251220370E-02   4.6980031618172415E-02   4.7819658613009290E-03
         1         57   1.1348401595156748E-02   4.1878734452824584E-02   2.4578893495744936E-02   3.2635375755425758E-03
         1         58   6.1908407613424517E-04   6.6792962263401345E-03   2.5664457078559987E-03   6.1862110618827147E-04
         1         59   2.0486170776967772E-08   8.9803899984411996E-03   7.8285144950276323E-04   5.9231337423846521E-04
         1         60   2.0486170776967772E-08   8.9803899984411996E-03   7.8285144950276323E-04   5.9231337423846521E-04
         1         61   4.2139308645769218E-04   5.0880589222472190E-03   1.5500446345517211E-03   5.1530321378360632E-04
         1         62   0.0000000000000000E+00   3.5551761907905719E-03   1.5004951236443715E-04   1.5108219660038097E-04
         1         63   1.8560069075036463E-07   1.3112453876738660E-02   2.0196884997341498E-03   1.2959580160480098E-03
         1         64   1.8560069075036463E-07   1.3112453876738660E-02   2.0196884997341498E-03   1.2959580160480098E-03
         1         65   1.3146448781333169E-03   4.6913688821406630E-03   2.5186827595016456E-03   4.0482346095204537E-04
         1         66   5.0899050336827775E-03   1.1770973919210699E-02   7.6550037426537524E-03   5.8844898977318701E-04
         1         67   5.0899050336827775E-03   1.1770973919210699E-02   7.6550037426537524E-03   5.8844898977318701E-04
         1         68   2.5748883320724032E-09   7.2959140482138267E-03   1.3790700422480397E-03   8.2628279339094389E-04
         1         69   2.5748883320724032E-09   7.2959140482138267E-03   1.3790700422480397E-03   8.2628279339094389E-04
         1         70   2.1098583561850067E-09   6.9018135647925553E-03   4.2775862607777505E-04   3.7802091394849497E-04
         1         71   2.1098583561850067E-09   6.9018135647925553E-03   4.2775862607777505E-04   3.7802091394849497E-04
         1         72   1.4007855237003098E-04   4.1953506922928988E-03   9.1518387834483195E-04   4.7276407520945046E-04
         1         73   0.0000000000000000E+00   2.9256351379105521E-03   1.1276213817104098E-04   1.1385804421463423E-04
         1         74   1.6790362608679852E-07   1.1033877443090015E-02   1.6645956763091613E-03   1.0736697140158089E-03
         1         75   1.6790362608679852E-07   1.1033877443090015E-02   1.6645956763091613E-03   1.0736697140158089E-03
         1         76   4.6112734343068448E-03   1.0026327725245922E-02   6.8725082234797298E-03   4.9869555777253764E-04
         1         77   4.6112734343068448E-03   1.0026327725245922E-02   6.8725082234797298E-03   4.9869555777253764E-04
         1         78   2.4699694258436019E-09   6.3136769286463151E-03   1.2504323236802407E-03   7.3160667832066894E-04
         1         79   2.4699694258436019E-09   6.3136769286463151E-03   1.2504323236802407E-03   7.3160667832066894E-04
         1         80   2.6777282768749859E-09   2.8638933584544377E-03   1.7093313020147551E-04   1.3604190776210189E-04
         1         81   2.6777282768749859E-09   2.8638933584544377E-03   1.7093313020147551E-04   1.3604190776210189E-04
         1         82   2.3702828534660561E-04   1.4523886654191834E-02   4.4607915787686558E-03   2.4246659057411222E-03
         1         83   4.8060990472236029E-03   9.9730003295318059E-02   4.1836264593502141E-02   1.9041013116456729E-02
         1         84   4.8060990472236029E-03   9.9730003295318059E-02   4.1836264593502141E-02   1.9041013116456729E-02
         1         85   9.2660257947494644E-04   1.9317426069087342E-02   8.3933111623776310E-03   3.6807624120885236E-03
         1         86   9.2660257947494644E-04   1.9317426069087342E-02   8.3933111623776310E-03   3.6807624120885236E-03
         1         87   8.9007112874548312E-04   1.0673051126168469E-02   4.1273592846184128E-03   1.4383880610024759E-03
         1         88   8.9007112874548312E-04   1.0673051126168469E-02   4.1273592846184128E-03   1.4383880610024759E-03
         1         89   4.1595618011700870E-02   9.4146762995069924E-02   6.6913753389711561E-02   7.0365827667105583E-03
         1         90   1.5667775692471568E-02   4.2365617570630780E-02   2.3870164305780626E-02   2.5546857136273804E-03
         1         91   1.5667775692471568E-02   4.2365617570630780E-02   2.3870164305780626E-02   2.5546857136273804E-03
         1         92   3.0302093299177796E-03   5.2810758763998607E-02   1.8785182209886342E-02   1.1267591303629356E-02
         1         93   3.0302093299177796E-03   5.2810758763998607E-02   1.8785182209886342E-02   1.1267591303629356E-02
         1         94   1.7021418146817629E-03   4.7366866940085862E-03   2.5809220094378826E-03   2.7439105285635565E-04
         1         95   3.3339524718146876E-04   8.9932084992064981E-03   2.4306241866480132E-03   2.3088961845384088E-03
         1         96   3.3339524718146876E-04   8.9932084992064981E-03   2.4306241866480132E-03   2.3088961845384088E-03
         1         97   9.6612558334351344E-05   4.8158631264956986E-03   1.2986011158816302E-03   1.1421411193578302E-03
         1         98   1.4220487430227453E-03   3.0360239677523583E-02   1.2782519751536396E-02   5.5533724831736834E-03
         1         99   3.1341722261369193E-02   1.9807363550656920E-01   1.2283453326844038E-01   4.3360700282000383E-02
         1        100   3.1341722261369193E-02   1.9807363550656920E-01   1.2283453326844038E-01   4.3360700282000383E-02
         1        101   7.2444931299783070E-03   4.5007759312433247E-02   2.6140598412385863E-02   8.2709037089928120E-03
         1        102   7.2444931299783070E-03   4.5007759312433247E-02   2.6140598412385863E-02   8.2709037089928120E-03
         1        103   2.9519084010321841E-03   2.4274926489630116E-02   1.1177622308961370E-02   2.8087753972855251E-03
         1        104   2.9519084010321841E-03   2.4274926489630116E-02   1.1177622308961370E-02   2.8087753972855251E-03
         1        105   1.0712892141494783E-01   1.8968235673171391E-01   1.4359930065271681E-01   1.5661613905127155E-02
         1        106   9.4312988643877549E-02   1.6662822499034832E-01   1.2021066988506059E-01   7.9681378464110213E-03
         1        107   9.4312988643877549E-02   1.6662822499034832E-01   1.2021066988506059E-01   7.9681378464110213E-03
         1        108   1.7771392144703843E-02   1.5734863431827395E-01   6.9130427262638641E-02   3.5491753611682587E-02
         1        109   1.7771392144703843E-02   1.5734863431827395E-01   6.9130427262638641E-02   3.5491753611682587E-02
         1        110   5.0911565440666957E-03   1.0586633857791765E-02   6.8719802380527743E-03   5.7224201766284670E-04
         1        111   9.7943036697431215E-04   1.5149778229896467E-02   4.8437349845564300E-03   4.9930798397900293E-03
         1        112   9.7943036697431215E-04   1.5149778229896467E-02   4.8437349845564300E-03   4.9930798397900293E-03
         1        113   6.7990638280941468E-04   1.2170079772964800E-02   4.5339196655143485E-03   2.9938842134979477E-03
         1        114   3.2851380124996822E-05   6.0958276844477553E-03   1.4590732738285804E-03   8.8075156618812843E-04
         1        115   1.2625101260159686E-03   6.0122304891732571E-02   1.8635961613505291E-02   9.5129590915212486E-03
         1        116   1.2625101260159686E-03   6.0122304891732571E-02   1.8635961613505291E-02   9.5129590915212486E-03
         1        117   1.5575263994857658E-04   1.0395772405802731E-02   3.1544460450722341E-03   1.6298879002103169E-03
         1        118   1.5575263994857658E-04   1.0395772405802731E-02   3.1544460450722341E-03   1.6298879002103169E-03
         1        119   2.7693317716938055E-04   5.0834499509896580E-03   1.4284293261382823E-03   6.3468531048908687E-04
         1        120   2.7693317716938055E-04   5.0834499509896580E-03   1.4284293261382823E-03   6.3468531048908687E-04
         1        121   1.7354630546192722E-02   5.2160053530108330E-02   3.3612644156745801E-02   4.1007590620483992E-03
         1        122   4.4425453285185639E-03   1.5596808557025539E-02   8.0801296977072549E-03   1.0253173343534126E-03
         1        123   4.4425453285185639E-03   1.5596808557025539E-02   8.0801296977072549E-03   1.0253173343534126E-03
         1        124   1.0499346288711520E-03   2.5413383786009144E-02   9.3183267999572203E-03   4.8317471503551328E-03
         1        125   1.0499346288711520E-03   2.5413383786009144E-02   9.3183267999572203E-03   4.8317471503551328E-03
         1        126   1.0907651679255874E-04   4.1079467438680040E-03   1.1208722875830160E-03   8.5191311111830806E-04
         1        127   1.0907651679255874E-04   4.1079467438680040E-03   1.1208722875830160E-03   8.5191311111830806E-04
         1        128   1.2172413113685956E-03   2.3485053894158735E-02   9.7808014465963176E-03   4.0214454054537828E-03
         1        129   2.7569782162293215E-02   1.5854703467396666E-01   9.9634230288443482E-02   3.3680784298109667E-02
         1        130   2.7569782162293215E-02   1.5854703467396666E-01   9.9634230288443482E-02   3.3680784298109667E-02
         1        131   6.4552554591428843E-03   3.5540999648498557E-02   2.0901733295080466E-02   6.2151068029357801E-03
         1        132   6.4552554591428843E-03   3.5540999648498557E-02   2.0901733295080466E-02   6.2151068029357801E-03
         1        133   2.2902314953877614E-03   1.9055546184768461E-02   8.4786923504812390E-03   2.0616894212266480E-03
         1        134   2.2902314953877614E-03   1.9055546184768461E-02   8.4786923504812390E-03   2.0616894212266480E-03
         1        135   8.4150163577106987E-02   1.4446599885088909E-01   1.1029819141975110E-01   1.1622059437292958E-02
         1        136   8.3237774006859472E-02   1.4111549976791063E-01   1.0442063527698722E-01   6.3565737578979474E-03
         1        137   8.3237774006859472E-02   1.4111549976791063E-01   1.0442063527698722E-01   6.3565737578979474E-03
         1        138   1.5641809929994255E-02   1.2989913614608625E-01   5.9663571852709506E-02   2.8974023261053680E-02
         1        139   1.5641809929994255E-02   1.2989913614608625E-01   5.9663571852709506E-02   2.8974023261053680E-02
         1        140   3.8268727711478216E-03   7.5557556978631708E-03   5.1039337356787789E-03   4.0258506173638278E-04
         1        141   7.5743753020328451E-04   1.0986930987909718E-02   3.5339830854914326E-03   3.5228343664425602E-03
         1        142   7.5743753020328451E-04   1.0986930987909718E-02   3.5339830854914326E-03   3.5228343664425602E-03
         1        143   5.9643167381818606E-04   9.0222302980429610E-03   3.5722355976653530E-03   2.2088664137146189E-03
         1        144   1.5737362626761376E-06   3.1943082621443126E-03   2.6436880671931902E-04   1.9001958775523555E-04
         1        145   7.3704620964246126E-05   2.0320441094418214E-02   3.7965263345943684E-03   2.2572557920657078E-03
         1        146   7.3704620964246126E-05   2.0320441094418214E-02   3.7965263345943684E-03   2.2572557920657078E-03
         1        147   3.1292922098269337E-03   1.4261270824655744E-02   6.9292700630501549E-03   1.2154456748582347E-03
         1        148   1.5133162767924893E-03   5.7859609511954060E-03   2.5761731521587272E-03   2.9151729466326209E-04
         1        149   1.5133162767924893E-03   5.7859609511954060E-03   2.5761731521587272E-03   2.9151729466326209E-04
         1        150   3.6378370360123635E-05   6.2184987351231449E-03   1.3309374665712297E-03   9.4681848712943226E-04
         1        151   3.6378370360123635E-05   6.2184987351231449E-03   1.3309374665712297E-03   9.4681848712943226E-04
         1        152   8.4932013137088076E-06   6.9156949095656858E-03   7.7939018221938685E-04   5.2183545291338497E-04
         1        153   7.7729032007337799E-04   3.2497569063102985E-02   1.0661642516745676E-02   5.3402884521316241E-03
         1        154   7.7729032007337799E-04   3.2497569063102985E-02   1.0661642516745676E-02   5.3402884521316241E-03
         1        155   1.9405827455363749E-04   3.6693415771666743E-03   1.5864961329662536E-03   6.6941661851086789E-04
         1        156   1.9405827455363749E-04   3.6693415771666743E-03   1.5864961329662536E-03   6.6941661851086789E-04
         1        157   8.3876775906463856E-03   1.8565423144544124E-02   1.2743270233307950E-02   1.5469423499596261E-03
         1        158   1.4547376682805634E-02   2.8588735326572728E-02   1.9749755903092987E-02   1.2667291472450975E-03
         1        159   1.4547376682805634E-02   2.8588735326572728E-02   1.9749755903092987E-02   1.2667291472450975E-03
         1        160   3.9454809265254275E-04   2.1855429622037011E-02   6.4749905083749931E-03   3.5885216376338653E-03
         1        161   3.9454809265254275E-04   2.1855429622037011E-02   6.4749905083749931E-03   3.5885216376338653E-03
         1        162   1.3778959864250243E-05   1.4580611670328331E-02   1.9118566236739757E-03   1.2890532559572253E-03
         1        163   1.3778959864250243E-05   1.4580611670328331E-02   1.9118566236739757E-03   1.2890532559572253E-03
         1        164   1.2550322083045150E-03   9.8897406000011401E-03   3.8616601171609726E-03   1.0469777014273866E-03
         1        165   1.0699677703299180E-05   3.0316859819885570E-03   6.3090299835389643E-04   4.1806638146980174E-04
         1        166   1.0699677703299180E-05   3.0316859819885570E-03   6.3090299835389643E-04   4.1806638146980174E-04
         1        167   7.1677189356488736E-06   5.6069913741265158E-03   5.8790244743306462E-04   3.9005441023226757E-04
         1        168   7.1298903011095347E-04   2.6757739639013046E-02   8.7769728058252824E-03   4.3290344133337794E-03
         1        169   7.1298903011095347E-04   2.6757739639013046E-02   8.7769728058252824E-03   4.3290344133337794E-03
         1        170   1.7510070131668824E-04   2.8837633175208665E-03   1.2679276085039086E-03   5.1566902376410978E-04
         1        171   1.7510070131668824E-04   2.8837633175208665E-03   1.2679276085039086E-03   5.1566902376410978E-04
         1        172   6.6598950515993800E-03   1.3644382388776889E-02   9.6756602874187685E-03   1.1187962819177019E-03
         1        173   1.3123343124416362E-02   2.4502424069530213E-02   1.7634706458148998E-02   1.0549649661372380E-03
         1        174   1.3123343124416362E-02   2.4502424069530213E-02   1.7634706458148998E-02   1.0549649661372380E-03
         1        175   3.6361824268237735E-04   1.8574771643502290E-02   5.7749560401576605E-03   3.0576451150133967E-03
         1        176   3.6361824268237735E-04   1.8574771643502290E-02   5.7749560401576605E-03   3.0576451150133967E-03
         1        177   7.8922381712436750E-11   2.6759326374822829E-02   6.5531269919788969E-03   4.2851968928558429E-03
         1        178   1.6959643493396025E-05   2.2832904347135050E-01   6.3597325499219509E-02   3.8233577698231269E-02
         1        179   1.6959643493396025E-05   2.2832904347135050E-01   6.3597325499219509E-02   3.8233577698231269E-02
         1        180   2.1733703445059546E-06   5.0239727271032146E-02   1.2936716918544103E-02   8.0705806486404113E-03
         1        181   2.1733703445059546E-06   5.0239727271032146E-02   1.2936716918544103E-02   8.0705806486404113E-03
         1        182   8.9376958782863783E-08   1.7957735915903592E-02   3.2574166061125421E-03   2.4355518501776511E-03
         1        183   8.9376958782863783E-08   1.7957735915903592E-02   3.2574166061125421E-03   2.4355518501776511E-03
         1        184   4.7059470956189502E-02   2.0445225877933743E-01   1.1841657130645465E-01   1.7522959325310453E-02
         1        185   1.8218636101598368E-02   6.9923961605855067E-02   3.7437341911148350E-02   4.7541227671535667E-03
         1        186   1.8218636101598368E-02   6.9923961605855067E-02   3.7437341911148350E-02   4.7541227671535667E-03
         1        187   6.5628317712632187E-07   9.7482106069454885E-02   3.0134116071789858E-02   1.8432962756532275E-02
         1        188   6.5628317712632187E-07   9.7482106069454885E-02   3.0134116071789858E-02   1.8432962756532275E-02
         1        189   9.1530694298163349E-04   6.7717085358273300E-03   2.0228742101347239E-03   3.7824238769605624E-04
         1        190   1.9312978971236645E-07   1.9537465267150465E-02   6.8367324820417701E-03   3.7122910536683132E-03
         1        191   1.9312978971236645E-07   1.9537465267150465E-02   6.8367324820417701E-03   3.7122910536683132E-03
         1        192   0.0000000000000000E+00   8.0855991135136019E-03   9.4615655680692107E-04   1.5568083229277588E-03
         1        193   6.2811703481996548E-11   3.2819862889160188E-02   5.2517069435621651E-03   3.6849596135604553E-03
         1        194   2.7319301228338728E-05   1.4361696915080965E-01   5.2636163194816316E-02   3.0197517375132897E-02
         1        195   2.7319301228338728E-05   1.4361696915080965E-01   5.2636163194816316E-02   3.0197517375132897E-02
         1        196   5.3900122178175467E-06   2.6621970708942372E-02   9.7121767857813821E-03   5.5288260862517242E-03
         1        197   5.3900122178175467E-06   2.6621970708942372E-02   9.7121767857813821E-03   5.5288260862517242E-03
         1        198   1.5667204271133568E-07   1.5131233678245540E-02   3.3440848930256831E-03   2.3731440876115085E-03
         1        199   1.5667204271133568E-07   1.5131233678245540E-02   3.3440848930256831E-03   2.3731440876115085E-03
         1        200   4.9400191518985309E-02   1.3670707880689845E-01   8.7492145410755201E-02   1.2286743574972954E-02
         1        201   5.1079070359219922E-02   1.1619405861847877E-01   7.4500539660545234E-02   5.7251050818311004E-03
         1        202   5.1079070359219922E-02   1.1619405861847877E-01   7.4500539660545234E-02   5.7251050818311004E-03
         1        203   1.9241830056644547E-07   8.8420850942015197E-02   1.9594501076169099E-02   1.5033837757057373E-02
         1        204   1.9241830056644547E-07   8.8420850942015197E-02   1.9594501076169099E-02   1.5033837757057373E-02
         1        205   2.1792924726828596E-03   8.0616097382961039E-03   3.6536982643305886E-03   4.4760978409431646E-04
         1        206   2.9812970640063650E-08   1.4372612794698649E-02   2.5694666555414166E-03   2.6507869086334567E-03
         1        207   2.9812970640063650E-08   1.4372612794698649E-02   2.5694666555414166E-03   2.6507869086334567E-03
         1        208   0.0000000000000000E+00   7.1054946483549942E-03   9.7903032202330720E-04   1.2839385545731488E-03
         1        209   1.1318095837465006E-11   1.8983792510843384E-02   4.6768114104377432E-03   3.0514591691624010E-03
         1        210   1.0811278835159818E-05   1.7384728376512490E-01   4.1438062525961585E-02   2.6149640124051285E-02
         1        211   1.0811278835159818E-05   1.7384728376512490E-01   4.1438062525961585E-02   2.6149640124051285E-02
         1        212   9.6118711967864658E-07   4.1269098419935799E-02   8.7009158042038702E-03   5.7713976621976415E-03
         1        213   9.6118711967864658E-07   4.1269098419935799E-02   8.7009158042038702E-03   5.7713976621976415E-03
         1        214   4.5254978059272735E-08   1.0631288948776135E-02   1.8058619587967785E-03   1.3719390318502750E-03
         1        215   4.5254978059272735E-08   1.0631288948776135E-02   1.8058619587967785E-03   1.3719390318502750E-03
         1        216   2.7727051090220500E-02   1.4993518060197564E-01   8.4855560257266940E-02   1.4611734121689902E-02
         1        217   9.1333264780173902E-03   4.2431914880959737E-02   2.3537762776795951E-02   3.7088421740973424E-03
         1        218   9.1333264780173902E-03   4.2431914880959737E-02   2.3537762776795951E-02   3.7088421740973424E-03
         1        219   5.4999471220524202E-07   6.5449692296197751E-02   2.3167536002392523E-02   1.2794117696655005E-02
         1        220   5.4999471220524202E-07   6.5449692296197751E-02   2.3167536002392523E-02   1.2794117696655005E-02
         1        221   2.6972780102737685E-04   3.5410317233508302E-03   7.5943760762416698E-04   2.0094785506236123E-04
         1        222   1.7208910842721845E-07   1.4813678046998999E-02   5.4243603900365860E-03   2.7327956334079156E-03
         1        223   1.7208910842721845E-07   1.4813678046998999E-02   5.4243603900365860E-03   2.7327956334079156E-03
         1        224   0.0000000000000000E+00   5.4480729445233302E-03   6.0738862264733738E-04   1.0681846646782658E-03
         1        225   1.9309532010212863E-12   2.2021530640334137E-02   3.3753913620210110E-03   2.3993322471994372E-03
         1        226   2.1170936570102507E-05   8.9135209444584029E-02   3.0476900221558374E-02   1.7316190996000617E-02
         1        227   2.1170936570102507E-05   8.9135209444584029E-02   3.0476900221558374E-02   1.7316190996000617E-02
         1        228   2.1220839456041527E-06   1.6375895649689956E-02   5.4763756714411495E-03   3.1074040209583486E-03
         1        229   2.1220839456041527E-06   1.6375895649689956E-02   5.4763756714411495E-03   3.1074040209583486E-03
         1        230   1.1255006198774456E-07   7.7650369964098196E-03   1.8925302457099187E-03   1.3087550449088399E-03
         1        231   1.1255006198774456E-07   7.7650369964098196E-03   1.8925302457099187E-03   1.3087550449088399E-03
         1        232   3.2649469498664596E-02   8.0827972352724181E-02   5.3931134361567448E-02   7.1258610386878800E-03
         1        233   4.1767798802450268E-02   8.7460666078128232E-02   6.0600960526192828E-02   4.2203703713069290E-03
         1        234   4.1767798802450268E-02   8.7460666078128232E-02   6.0600960526192828E-02   4.2203703713069290E-03
         1        235   8.6129835645365323E-08   5.6388437168758021E-02   1.2627921006771762E-02   9.0447683360259431E-03
         1        236   8.6129835645365323E-08   5.6388437168758021E-02   1.2627921006771762E-02   9.0447683360259431E-03
         1        237   1.4857070231221198E-03   4.9030702679079179E-03   2.3902616618200305E-03   2.7137002967982657E-04